&FCI NORB=   2,NELEC=   2,MS2= 0,
  ORBSYM=1,1,
  ISYM=0,
&END
 4.8349474556297384E-01   1   1   1   1
-2.2700163811158088E-03   1   1   1   2
 2.6516161429791069E-01   1   1   2   2
 8.7915058184527741E-03   1   2   1   2
-6.9944442296049391E-04   1   2   2   2
 2.9245340473071663E-01   2   2   2   2
-8.2378088746320921E-01   1   1   0   0
 2.1574860541933548E-03   1   2   0   0
-3.3881173062823627E-01   2   2   0   0
-4.3533890765899230E+01   0   0   0   0
