&FCI NORB=   2,NELEC=   2,MS2= 0,
  ORBSYM=1,1,
  ISYM=0,
&END
 2.0348099161785896E-01   1   1   1   1
 3.3078658449152095E-04   1   1   1   2
-2.9168750757265067E-02   1   1   2   2
 4.7855100464591881E-05   1   2   1   2
-4.4704522008265170E-06   1   2   2   2
 3.8496695499099912E-02   2   2   2   2
-3.7981225724098461E-01   1   1   0   0
-2.5639494748530556E-04   1   2   0   0
 3.6716889736086294E-01   2   2   0   0
-1.2962613413554584E+03   0   0   0   0
