&FCI NORB=   2,NELEC=   2,MS2= 0,
  ORBSYM=1,1,
  ISYM=0,
&END
 3.0279549156964829E-02   1   1   1   1
 9.8091149553799967E-06   1   1   1   2
 3.0335518809384149E-03   1   1   2   2
 2.4838931722581475E-04   1   2   1   2
 1.4610952454827511E-07   1   2   2   2
 1.1119003824851661E-02   2   2   2   2
-2.5439284661375372E-01   1   1   0   0
-1.5709128773253598E-05   1   2   0   0
 2.9288309067310231E-01   2   2   0   0
-1.2516303259688138E+03   0   0   0   0
