&FCI NORB=   2,NELEC=   2,MS2= 0,
  ORBSYM=1,1,
  ISYM=0,
&END
 4.2447690427139800E-01   1   1   1   1
-9.6375118729272735E-03   1   1   1   2
 1.2218260935686248E-01   1   1   2   2
 1.4843775062949652E-03   1   2   1   2
 7.6009153462465971E-05   1   2   2   2
 1.2274452770037467E-01   2   2   2   2
-9.0452146472635930E-01   1   1   0   0
 9.6382558443538473E-03   1   2   0   0
-5.5968291765819592E-02   2   2   0   0
-3.3512168985790629E+02   0   0   0   0
