      57
 i =      131, E =      -319.7329832697
  O         7.5392686384       12.8680914595       11.7155527202
  H         7.1749058985       12.0880993555       12.1357450675
  H         7.6264380977       12.6532118439       10.7825108808
  O         6.5625478436       10.1034278003        8.1252829494
  H         7.0543118552       10.8846684646        8.4209331683
  H         5.7897874748       10.4148668624        7.6633132664
  O         9.7275970730       10.3818904569       12.8819916309
  H         9.9173047355       11.3194659252       12.9749117174
  H         8.7934545882       10.2674143811       13.0762714662
  O        10.5202007016       10.8329578580        6.7700053125
  H        10.4626127629       11.7313756398        7.0920873451
  H        11.2143539416       10.4131258233        7.2799758297
  O         8.7496193879        7.2921537963       10.2084175576
  H         9.4511119652        6.9244663767       10.7539294884
  H         8.8774545351        6.9119403891        9.3336127509
  O         8.1847082429       11.9367750823        9.2108383051
  H         8.7805297953       11.2430114259        9.5290714051
  H         8.7374893950       12.5436698492        8.7094025313
  O        12.0380914350        8.8986828640       12.5585846434
  H        12.5482523933        9.5387637776       12.0612042151
  H        11.2658075100        9.3601483932       12.8831458916
  O         9.6876196875        9.8962303274       10.2075272618
  H         9.2546384225        9.0381398289       10.1439907154
  H         9.8105765691       10.0632463317       11.1489160190
  O        11.6306806494       12.9758182049       10.3790546440
  H        12.2523012770       12.2709959158       10.5641391199
  H        11.1103651236       13.1026999364       11.1739121670
  O        11.9802439414        6.8756035599        8.6454757881
  H        11.8309299531        6.6105510168        9.5524268023
  H        11.1873605828        6.6422909550        8.1630431956
  O        11.2492429078        6.5627365971       11.3534592013
  H        11.5009307046        5.8592957043       11.9432750294
  H        11.5707542120        7.3856140060       11.7615575048
  O        10.0005630284       13.1243107522       12.6039772717
  H        10.0948235335       13.8046532017       13.2635841839
  H         9.0801195442       13.1602832896       12.2810511599
  O        11.9799490901        9.5839056172        8.7498335757
  H        12.1059888947        8.6303818165        8.6269508115
  H        11.1455351557        9.6756271415        9.2232697198
  O        13.2285928659       10.7294080969       10.8339012233
  H        12.9234686530       10.2835729329       10.0241069891
  H        14.1760455312       10.8034188959       10.7659919148
  O         6.4998279919        8.7976126492       10.5842605197
  H         7.1458122211        8.0972077967       10.4961877867
  H         6.3973526258        9.1916291926        9.7177995860
  O         6.9798433672       10.3130056234       12.8123215342
  H         6.7934712949        9.7815682574       12.0169877008
  H         6.3028933943       10.0916959584       13.4445853685
  O         8.5421579150        8.9569335636        6.6662223440
  H         9.1952638185        9.6639549803        6.6144815170
  H         7.7809214068        9.3090110848        7.1219192646
  O         9.4792979167        6.5628156321        7.6049259841
  H         9.1824695923        5.8794194491        7.0122640394
  H         9.1886957092        7.4114784029        7.2147983070
  O        10.3117473953       13.3325896424        8.1246795261
  H        10.5482711905       14.1665925667        7.7326832163
  H        10.8670668534       13.2185445626        8.9152949825
