&FCI NORB=   2,NELEC=   2,MS2= 0,
  ORBSYM=1,1,
  ISYM=0,
&END
 4.7031992436202752E-01   1   1   1   1
 5.2733111636007780E-03   1   1   1   2
 1.1724260497312271E-01   1   1   2   2
 1.0667047829837008E-03   1   2   1   2
-1.9021426442906284E-04   1   2   2   2
 1.3061027138111775E-01   2   2   2   2
-9.2368130350869471E-01   1   1   0   0
-5.2691663144206575E-03   1   2   0   0
-5.1608793527974116E-02   2   2   0   0
-3.1829478702144752E+02   0   0   0   0
