       3    
 i =       18, E =       -16.8129566717
  O         9.8954477104        9.5820059936        9.7911018501
  H         9.9858353682        9.8443011072       10.7006863995
  H        10.0556368290       10.3697245372        9.2826894105