      60
 i =      188, E =      -336.5871386732
  O        11.2506381681        9.3754518810       10.8338609251
  H        10.4012123829        9.6693203382       10.4801133545
  H        11.3742568791        8.4897689309       10.4721963998
  O        12.6040591862       11.4592249496        9.6878374284
  H        12.2978355074       10.6573016621       10.1283123935
  H        13.0305828747       11.1814510008        8.8728856170
  O        13.2287229828       10.4174213447        7.1879905082
  H        14.0435092393       10.4387694566        6.6966427979
  H        12.9527197306        9.4855406759        7.2442367099
  O        11.0424550608        6.9795130735        9.5831351837
  H        10.1813858101        7.2154319639        9.2162294911
  H        10.8652267295        6.3100825169       10.2492254012
  O         8.1247790932       10.5216353705       12.4995069125
  H         7.4587379806        9.8481933868       12.6580161432
  H         8.9390517872       10.1866611283       12.8951056636
  O         6.7967982412        8.0662330313       12.7528125994
  H         6.9735302691        7.5842295677       11.9258017737
  H         5.9346917909        7.7914163812       13.0493438540
  O         7.4989983606        6.5627201814       10.6256603084
  H         8.2504860691        6.0265068134       10.8802494793
  H         7.7009159319        6.9208208080        9.7601606811
  O        10.2075930116       12.4996237675        8.9577418685
  H        10.0115526569       13.3079916665        9.4373900731
  H        11.0888142183       12.2224587821        9.2345234873
  O         8.8543987880       10.3116635459        9.8954560210
  H         9.1546676886       11.1496605998        9.5232313531
  H         8.4518295893       10.4871491940       10.7546206212
  O        10.6656735235       11.2051214953        6.5056019453
  H        11.6120335234       11.1272568521        6.6269902952
  H        10.3503443012       11.7935021828        7.1929504545
  O        11.4574440376       12.2909777685       14.0623606120
  H        11.8922910735       12.6363583689       13.2639356052
  H        11.9429480494       12.6247907286       14.8099854569
  O        12.3961756508       13.3333267190       11.7718400871
  H        11.6936209638       13.8798949595       11.4171872876
  H        12.6840338293       12.7596677392       11.0596968698
  O         9.8958036659        5.5211413590       11.6656851328
  H        10.0466778851        4.6531194525       12.0265767319
  H         9.7619345959        6.1196824211       12.4216767269
  O        12.2418074184        7.9545987899        7.2390601805
  H        11.4204220288        7.9826515977        6.7471751506
  H        12.0594021445        7.4642977159        8.0421104226
  O         9.7917788133        8.6453880320        6.1465001051
  H        10.0145425209        9.5840400918        6.2819567986
  H         9.4802895750        8.5709408872        5.2497471154
  O         8.9580782981       13.1259384386       13.0204718344
  H         9.7055988815       12.8707609780       13.5631834682
  H         8.4384003008       12.3318903730       12.8834118319
  O         9.8966427133       14.4785825139       10.9367987247
  H         9.6059812064       15.3840970878       10.9603116717
  H         9.4593181634       14.0172224561       11.6732786840
  O         8.6459011942        7.9159375215        8.5421360713
  H         8.5906021036        8.7909729364        8.9438943327
  H         8.8287007321        8.0618183107        7.6108459478
  O         9.2713658794        7.1865431927       13.6456359768
  H         8.3639953290        7.4738860057       13.5411221096
  H         9.7903666771        7.9753285711       13.8086920013
  O        10.5202032799        9.6870899633       13.4378579064
  H        10.9494836067        9.5306776632       12.5869874649
  H        10.9403996798       10.4624639633       13.8204137877
