&FCI NORB=   2,NELEC=   2,MS2= 0,
  ORBSYM=1,1,
  ISYM=0,
&END
 7.5824100517569970E-01   1   1   1   1
 5.7010921761506471E-04   1   1   1   2
 3.6904280905577652E-01   1   1   2   2
 1.3640843359520630E-02   1   2   1   2
 7.0089529993448501E-05   1   2   2   2
 3.3616724626800393E-01   2   2   2   2
-1.2542644112247792E+00   1   1   0   0
-4.8947541668643770E-04   1   2   0   0
-5.0664634157024824E-01   2   2   0   0
-1.5057800605623623E+01   0   0   0   0
